# vtk DataFile Version 3.0
Particle file created by Palabos
ASCII
DATASET UNSTRUCTURED_GRID
POINTS          918 double
 3.3007508204e+00  3.1688533632e+01  3.8973054354e+01
 3.1480700014e+00  3.1736309705e+01  4.4567344030e+01
 2.8169047950e+00  3.2721689592e+01  3.7083573385e+01
 3.4066391168e+00  3.3482431742e+01  4.2320786275e+01
 3.4930461765e+00  3.2910942521e+01  4.2383141473e+01
 3.0242412386e+00  3.2972965314e+01  4.5122496606e+01
 3.0978918031e+00  3.2579844954e+01  4.5119382672e+01
 3.4126236584e+00  3.3992552593e+01  3.9652484706e+01
 3.4339791086e+00  3.3778914977e+01  4.0517474648e+01
 2.5674688756e+00  3.4676291660e+01  3.4849335946e+01
 2.9139983985e+00  3.4618158366e+01  3.7201237509e+01
 3.0950214531e+00  3.4954683116e+01  3.6549771604e+01
 2.5829291972e+00  3.4676025490e+01  3.6849355944e+01
 3.0089125445e+00  3.5729709078e+01  3.4427900104e+01
 3.3358567117e+00  3.6209840181e+01  4.4173917263e+01
 3.4889486967e+00  3.7289631747e+01  3.3144778157e+01
 3.4948053175e+00  3.6910984664e+01  4.6976890684e+01
 3.1364043026e+00  3.8346422045e+01  3.3575745987e+01
 3.1339827282e+00  3.8155824541e+01  4.7203729072e+01
 3.2388636223e+00  3.8668562887e+01  3.6438375444e+01
 3.1022464443e+00  3.9432435539e+01  3.9441108845e+01
 2.9393741468e+00  3.8977819088e+01  4.4602592572e+01
 2.9087421040e+00  3.9144542114e+01  5.0745539214e+01
 3.1092037737e+00  4.0092863152e+01  3.2010487664e+01
 2.9718607320e+00  4.0259860493e+01  3.2728294530e+01
 3.0007843392e+00  4.0259541286e+01  3.5733749640e+01
 3.3724009365e+00  4.0188223454e+01  3.7825738404e+01
 2.9228265643e+00  3.9724377170e+01  4.7664201929e+01
 3.0110951420e+00  4.0235450013e+01  4.9114107914e+01
 3.3557478037e+00  4.0510861921e+01  4.0628010051e+01
 3.1976592380e+00  4.0512157237e+01  4.0516524381e+01
 3.1754899835e+00  4.1497188958e+01  4.5362407834e+01
 2.7727227097e+00  4.1466283758e+01  4.6055360369e+01
 3.4896407596e+00  4.0706489446e+01  4.8337297603e+01
 3.4795944232e+00  4.2719148452e+01  3.7796322529e+01
 3.3423540888e+00  4.3012962769e+01  3.9818734427e+01
 2.7235935305e+00  4.3229536071e+01  4.6371928126e+01
 2.7071123209e+00  4.2679842123e+01  4.8004270259e+01
 3.3001796466e+00  4.3744970990e+01  3.2632950367e+01
 3.1027875488e+00  4.4008182090e+01  3.6165526654e+01
 3.3664617534e+00  4.4390537510e+01  3.8316023554e+01
 2.8398722261e+00  4.3578824987e+01  3.9315852941e+01
 3.2778977444e+00  4.3970029191e+01  4.7722523747e+01
 3.2791436892e+00  4.3969845413e+01  4.9728622109e+01
 3.0880454081e+00  4.4509334621e+01  3.4142397573e+01
 3.2912489784e+00  4.4916637434e+01  3.6389806455e+01
 3.3251561298e+00  4.6403090905e+01  3.4491787808e+01
 3.3454338815e+00  4.6067832877e+01  4.0672027447e+01
 3.0843201311e+00  4.6267221248e+01  4.3353205172e+01
 2.9299657545e+00  4.5781618859e+01  4.5612203358e+01
 2.9134152315e+00  4.5821566105e+01  4.6192632542e+01
 3.0139756962e+00  4.7014851423e+01  4.4008749771e+01
 3.2390536074e+00  4.7656633783e+01  4.3557599962e+01
 3.4556936839e+00  4.7853918190e+01  4.4895738631e+01
 2.8170002015e+00  4.9449473761e+01  4.1935533790e+01
 3.4957902356e+00  5.0376713746e+01  3.8453197832e+01
 2.9561386738e+00  4.9913043561e+01  3.8619456404e+01
 3.0416068624e+00  5.0266724761e+01  4.1753561190e+01
 4.4843730086e+00  3.1451199861e+01  3.9409615644e+01
 3.8361150164e+00  3.2338153612e+01  3.6443885353e+01
 4.1747197426e+00  3.2203907487e+01  3.9195530838e+01
 4.4656933188e+00  3.1510689993e+01  4.1568605518e+01
 3.5168832800e+00  3.1709058893e+01  4.3467656841e+01
 4.2116708849e+00  3.1995012257e+01  4.4274391375e+01
 3.7334588427e+00  3.3091470089e+01  3.5986512667e+01
 4.3305428206e+00  3.2622150377e+01  3.7167509193e+01
 4.0387672414e+00  3.3238248665e+01  3.8991054449e+01
 4.2921488565e+00  3.3135744182e+01  4.2187402833e+01
 3.9515740854e+00  3.3471797867e+01  4.2338733907e+01
 4.4698341016e+00  3.2635106863e+01  4.5723824319e+01
 3.5069967767e+00  3.4295251867e+01  3.5456926298e+01
 4.4994960895e+00  3.3568231337e+01  3.6387468344e+01
 4.1912009600e+00  3.3503175018e+01  4.0182992601e+01
 3.9258908017e+00  3.4462768684e+01  3.9706199700e+01
 4.1103826185e+00  3.3640343989e+01  4.0842104644e+01
 4.1589075381e+00  3.3673408938e+01  4.3611374652e+01
 4.1421333984e+00  3.4266940418e+01  4.3727536167e+01
 4.0589065108e+00  3.3665683917e+01  4.4333292763e+01
 4.1360475728e+00  3.4952472422e+01  3.7080061905e+01
 4.1929093022e+00  3.5444606815e+01  3.7565137978e+01
 4.1326777688e+00  3.4598043376e+01  3.8762724881e+01
 3.8665337259e+00  3.4788923201e+01  3.9187435768e+01
 4.0653657954e+00  3.4578594012e+01  4.0542140646e+01
 4.4686168015e+00  3.4713756600e+01  4.0516202786e+01
 4.0037880594e+00  3.4734677352e+01  4.2137387526e+01
 4.4250533840e+00  3.4627307554e+01  4.3624912040e+01
 4.4614796999e+00  3.4888426809e+01  4.4110956800e+01
 3.9829077275e+00  3.5263396505e+01  4.4563369406e+01
 4.1389430744e+00  3.5208305726e+01  4.5353343941e+01
 3.5492241341e+00  3.5255196396e+01  4.6085881331e+01
 4.2288705168e+00  3.5446313049e+01  4.7425976946e+01
 4.4579185620e+00  3.6098548316e+01  3.4136528224e+01
 3.7508769425e+00  3.6382007371e+01  3.4886267468e+01
 4.1260182721e+00  3.5537862428e+01  4.2545694803e+01
 4.3022079598e+00  3.6929240653e+01  3.1866372305e+01
 4.2658714578e+00  3.6920025416e+01  3.6510913568e+01
 3.7696281715e+00  3.6555319115e+01  3.8837101612e+01
 4.2391564869e+00  3.6853022052e+01  4.0205074857e+01
 4.1820901546e+00  3.7076128916e+01  4.0447336709e+01
 3.7774857981e+00  3.6555376988e+01  3.9841226335e+01
 3.8233621708e+00  3.6645489526e+01  4.5885186996e+01
 4.2109683441e+00  3.7459306038e+01  4.7551566266e+01
 3.9234817977e+00  3.8019114473e+01  3.3260536656e+01
 4.2552042744e+00  3.7523904241e+01  3.5436474500e+01
 4.1774396322e+00  3.8031394067e+01  3.5836942980e+01
 3.7872229017e+00  3.8124787163e+01  3.5837445762e+01
 4.0596460188e+00  3.8463033880e+01  3.6792095854e+01
 4.1163244545e+00  3.8410416437e+01  3.9008254917e+01
 4.3702291745e+00  3.7659996427e+01  4.4574152553e+01
 4.0273151728e+00  3.8061563283e+01  4.6098156001e+01
 4.3584261401e+00  3.7866407005e+01  4.6555552924e+01
 4.4238948319e+00  3.7516288532e+01  4.7966109094e+01
 4.0000709509e+00  3.8475789339e+01  4.7576785223e+01
 3.9648187007e+00  3.8486734776e+01  5.0481233548e+01
 4.1936382212e+00  3.9013887431e+01  3.2224450044e+01
 4.3059934490e+00  3.9460337403e+01  3.4653197371e+01
 3.5126883107e+00  3.8868193575e+01  3.5467425895e+01
 4.2574957187e+00  3.9201637753e+01  3.7424074186e+01
 4.3664378016e+00  3.9109668680e+01  3.9336805001e+01
 4.2848419136e+00  3.8793807314e+01  4.0599189176e+01
 3.8727866639e+00  3.9122371620e+01  4.1034921255e+01
 3.8798648607e+00  3.9122410746e+01  4.2038965881e+01
 3.6727456999e+00  3.9213598466e+01  4.3301811522e+01
 4.2860745043e+00  3.8881099389e+01  4.3162898943e+01
 4.1953950097e+00  3.8590146640e+01  4.4311737689e+01
 3.7474432102e+00  3.8673568112e+01  4.4560620807e+01
 3.5075407800e+00  3.8845193496e+01  4.5748110681e+01
 3.9946277755e+00  3.8776841849e+01  4.7617047465e+01
 3.9697835390e+00  3.8524016419e+01  4.9979174067e+01
 4.2446448254e+00  3.9728592148e+01  3.2939629336e+01
 4.4490218921e+00  4.0235122281e+01  3.4791481168e+01
 4.2413035211e+00  3.9728611295e+01  3.6076879795e+01
 3.9239416984e+00  4.0430933533e+01  3.7043824741e+01
 4.0174757357e+00  4.0476645365e+01  3.7660083808e+01
 4.2754315660e+00  3.9973619493e+01  4.1827823947e+01
 4.1520667866e+00  4.0241805335e+01  4.1771593732e+01
 3.9684075073e+00  4.0332376609e+01  4.2214312886e+01
 4.0598362944e+00  3.9704574710e+01  4.4336398890e+01
 4.1252748361e+00  4.0329643214e+01  4.4499221779e+01
 3.6487406437e+00  3.9872524617e+01  4.4947860514e+01
 3.5473032160e+00  4.0016526589e+01  4.5605925910e+01
 3.8161767672e+00  3.9838406154e+01  4.7800318425e+01
 4.1167665239e+00  4.0804206819e+01  3.2014864882e+01
 3.7952681703e+00  4.0834548341e+01  3.1690641105e+01
 3.7548098558e+00  4.1362911222e+01  3.4468753989e+01
 3.7759133434e+00  4.0658987505e+01  3.5351887558e+01
 4.0102377839e+00  4.0921007658e+01  3.6366476867e+01
 3.8482521594e+00  4.1406454998e+01  4.1021345537e+01
 3.5705540312e+00  4.1242671579e+01  4.3745743073e+01
 4.0611160479e+00  4.1151312052e+01  4.7760433976e+01
 4.0122053349e+00  4.1191005759e+01  4.7862654570e+01
 4.2663681976e+00  4.0990169046e+01  4.7773928426e+01
 3.5542579982e+00  4.0863359789e+01  4.9253084201e+01
 3.8420668959e+00  4.1406046728e+01  5.0088240238e+01
 4.0557122594e+00  4.0932953750e+01  5.0637906108e+01
 4.4925409004e+00  4.0518863600e+01  5.0525888482e+01
 3.7775164518e+00  4.1657165389e+01  3.2144437122e+01
 3.5340533164e+00  4.2406269049e+01  3.3428177492e+01
 3.7908013275e+00  4.2078021588e+01  3.3820448043e+01
 3.5981081914e+00  4.2305858282e+01  4.0085272369e+01
 4.2554519216e+00  4.2043920058e+01  4.2454000893e+01
 3.6492246887e+00  4.2053827470e+01  4.2505543677e+01
 4.0843632362e+00  4.2362529399e+01  4.5946196874e+01
 3.5830836771e+00  4.2054072187e+01  4.7375170232e+01
 3.7820614284e+00  4.2201656567e+01  4.9075870882e+01
 3.8860259604e+00  4.1964294878e+01  4.9869387048e+01
 4.4167702831e+00  4.2567061575e+01  3.1651326109e+01
 4.3162261785e+00  4.2726661985e+01  3.4371615663e+01
 3.7047452807e+00  4.2561997660e+01  3.4879544355e+01
 4.3931799396e+00  4.3140711618e+01  3.7008685234e+01
 3.7629046683e+00  4.2858446969e+01  3.6625827046e+01
 3.6667471444e+00  4.3192669271e+01  3.9270153227e+01
 4.4011495967e+00  4.2890370857e+01  4.3128171142e+01
 4.2422486842e+00  4.2899227722e+01  4.4282845497e+01
 4.3060570193e+00  4.2948976700e+01  4.4636986110e+01
 4.1460863562e+00  4.3348227987e+01  4.5535217277e+01
 4.2487079515e+00  4.2899380200e+01  4.8299620161e+01
 4.4910496292e+00  4.3494410341e+01  4.9323168869e+01
 3.6235109972e+00  4.2501934348e+01  4.9254948131e+01
 4.4552035218e+00  4.2971318057e+01  4.9895895678e+01
 4.0649661281e+00  4.3048655588e+01  5.0232570848e+01
 3.7807915068e+00  4.2768620145e+01  5.0429420252e+01
[...]
POINT_DATA          918
VECTORS Velocity double
 7.3846099632e-03 -1.5818174178e-04 -3.4567742162e-05
 7.3316935854e-03 -1.2991116347e-04  5.0349704795e-05
 7.3618829257e-03 -5.8653226340e-05 -2.7922217283e-05
 7.5484438786e-03 -1.2908341727e-04  2.2750782120e-05
 7.5150673597e-03 -1.6032089518e-04  2.7532757279e-05
 7.4016443119e-03 -7.9260287659e-05  4.0983869357e-05
 7.3776306306e-03 -1.0191905969e-04  5.0033937652e-05
 7.5848165430e-03 -1.1723381591e-04 -2.2651011240e-05
 7.5792641698e-03 -1.2547131863e-04 -8.4140225819e-06
 7.3554541844e-03 -2.1989835409e-05 -2.1214933956e-05
 7.5093944997e-03 -3.9946246771e-05 -2.3796962143e-05
 7.5260398355e-03 -5.8435863046e-05 -4.3156415606e-05
 7.4537298615e-03 -1.4703407576e-05 -9.6620976658e-06
 7.4478266192e-03 -4.6532573827e-05 -5.7717482719e-05
 7.6605830230e-03 -6.5228630688e-05  4.3175485493e-05
 7.4760384042e-03 -7.5704581450e-05 -1.5943374908e-04
 7.5867717929e-03 -7.7073147846e-05  1.1222543642e-04
 7.5021938154e-03 -2.9736563965e-05 -8.2291594736e-05
 7.5759150854e-03 -2.8182074742e-05  6.0895635484e-05
 7.6812929700e-03 -2.5295969361e-05 -4.9101117169e-05
 7.7660006170e-03 -9.2067425176e-06 -9.0252264383e-06
 7.6909976589e-03 -7.3311065768e-06  1.2871027609e-05
 7.3058275447e-03 -1.7623554835e-05  9.0728185759e-05
 7.4095258919e-03 -1.0967353050e-05 -1.0637820311e-04
 7.4528464286e-03 -6.0955578098e-06 -6.5997256257e-05
 7.6468674887e-03 -4.0015702404e-06 -2.7431924735e-05
 7.7689370720e-03 -1.0455027877e-05 -4.0408702675e-05
 7.5531457933e-03 -7.4063880101e-06  3.7545955922e-05
 7.4702340315e-03 -6.6381270009e-06  6.8316273435e-05
 7.8146487935e-03 -5.7563810087e-06 -4.2986964186e-06
 7.7968801281e-03 -3.8833279519e-06 -3.7411628740e-06
 7.7070037074e-03  4.2505165095e-06  3.7918632778e-05
 7.6268137567e-03  1.0443231532e-06  1.1820801202e-05
 7.5777224616e-03 -5.6513087988e-06  1.3789869830e-04
 7.7685599435e-03  2.6629940310e-05 -4.9696268016e-05
 7.7910309139e-03  2.3222668828e-05 -1.3692675227e-05
 7.5819811239e-03  5.3700450542e-06  1.2849804038e-05
 7.4966168448e-03  5.8407671322e-06  2.3887510623e-05
 7.4466191910e-03  4.4206291835e-05 -1.3427519522e-04
 7.6395233484e-03  2.3920946051e-05 -3.8460897802e-05
 7.7302963408e-03  4.4870692440e-05 -3.5532583906e-05
 7.7110610394e-03  4.9107533643e-06 -3.2270277599e-06
 7.5562876027e-03  4.0992505630e-05  9.2677618892e-05
 7.4100639774e-03  4.7879430077e-05  1.4029373747e-04
 7.5109392214e-03  3.4314921988e-05 -6.6593039098e-05
 7.6391088971e-03  5.0105957793e-05 -5.9059122114e-05
 7.4771570416e-03  8.7814252761e-05 -1.0564350481e-04
 7.6956479270e-03  6.7065754375e-05 -4.3652507485e-06
 7.6322556561e-03  4.0104102457e-05  1.8007947160e-05
 7.5630871533e-03  2.6753748553e-05  2.5855583595e-05
 7.5329091485e-03  2.8232022384e-05  3.0381245060e-05
 7.5709630995e-03  4.1050348524e-05  2.0648748853e-05
 7.5659762795e-03  8.4241785727e-05  3.2498460400e-05
 7.5363023055e-03  1.2732914416e-04  7.2481559692e-05
 7.4162570171e-03  5.2845853586e-05  5.9143194662e-06
 7.3859083174e-03  2.0411933421e-04 -5.5642425433e-05
 7.3751383878e-03  7.9976558337e-05 -2.1654848936e-05
 7.3786384766e-03  9.8858337443e-05  8.1154038104e-06
 7.4762824906e-03 -3.8985263456e-04 -6.5021380812e-05
 7.4133377351e-03 -2.5745832195e-04 -1.3559416714e-04
 7.5165101676e-03 -3.1035709978e-04 -6.3750438461e-05
 7.4909169897e-03 -3.8309127335e-04  2.2987247523e-05
 7.3976472295e-03 -2.0547399351e-04  5.4776920425e-05
 7.4661241826e-03 -3.2849794675e-04  1.1966655131e-04
 7.4436933293e-03 -2.1201306179e-04 -1.3446867714e-04
 7.5076328164e-03 -3.1821780093e-04 -1.4564527797e-04
 7.5851124724e-03 -2.4934166423e-04 -6.4563462991e-05
 7.6089603564e-03 -2.8415498236e-04  4.2959574691e-05
 7.6036988871e-03 -2.2611415961e-04  4.0257444176e-05
 7.4822651572e-03 -3.3913434131e-04  1.9161030658e-04
 7.4762396829e-03 -1.3936874291e-04 -1.1523479967e-04
 7.5601433901e-03 -2.9882833219e-04 -1.8551466403e-04
 7.6311755432e-03 -2.5594609907e-04 -2.7904849461e-05
 7.6681153343e-03 -1.8622539359e-04 -3.6882189451e-05
 7.6379853196e-03 -2.4033251257e-04 -5.1651011614e-06
 7.6110737726e-03 -2.4798698528e-04  8.8453898163e-05
 7.6470212072e-03 -2.2278944863e-04  9.0289454476e-05
 7.5824307909e-03 -2.3847573318e-04  1.0845311670e-04
 7.6518586844e-03 -1.9904380791e-04 -1.2901260974e-04
 7.6986950587e-03 -1.8501133571e-04 -1.1436628830e-04
 7.6785427678e-03 -2.0811544128e-04 -7.2745868319e-05
 7.6746638787e-03 -1.6698836930e-04 -4.8747321664e-05
 7.6947322009e-03 -1.9970956155e-04 -1.4249756438e-05
 7.7339209242e-03 -2.3679241013e-04 -1.8233561214e-05
 7.6951310191e-03 -1.8798910853e-04  3.4137507019e-05
 7.6934874909e-03 -2.3839604160e-04  9.8215178397e-05
 7.6998273347e-03 -2.3196092861e-04  1.1808413624e-04
 7.6684439826e-03 -1.7168019455e-04  1.0664767787e-04
 7.6480982439e-03 -1.9129818426e-04  1.4378399253e-04
 7.5612071913e-03 -1.1828756127e-04  1.0456206420e-04
 7.5604851070e-03 -1.9829941089e-04  2.2923307497e-04
 7.5841252812e-03 -1.9249260930e-04 -2.6924552488e-04
 7.5824886544e-03 -1.1712207064e-04 -1.5464861286e-04
 7.7432816029e-03 -1.7207687426e-04  4.8694116781e-05
 7.4336787781e-03 -1.5631553713e-04 -3.5002467709e-04
 7.7330613319e-03 -1.3924770269e-04 -1.5312712722e-04
 7.7467253688e-03 -1.0383494882e-04 -5.0464216396e-05
 7.8214863381e-03 -1.3451054619e-04 -2.5765644662e-05
 7.8270469375e-03 -1.2286577594e-04 -1.7304974132e-05
 7.7633506365e-03 -1.0357034269e-04 -2.6975201760e-05
 7.6655002996e-03 -1.1308895787e-04  1.2657582540e-04
 7.6389589629e-03 -1.2195143147e-04  2.2520885614e-04
 7.5527819756e-03 -8.9696223402e-05 -2.3232159775e-04
 7.7016734723e-03 -1.1954601514e-04 -1.9099767849e-04
 7.7333560367e-03 -9.6696541478e-05 -1.6791227140e-04
 7.6996243191e-03 -7.0581804532e-05 -1.2639052637e-04
 7.7770159596e-03 -7.5794957204e-05 -1.2538876067e-04
 7.8461606225e-03 -7.7364027361e-05 -5.9337042277e-05
 7.8017143596e-03 -1.1723377253e-04  1.2529375021e-04
 7.7259398003e-03 -8.8191715824e-05  1.5269721900e-04
 7.7214506620e-03 -1.1260379905e-04  1.9935099995e-04
 7.6313561114e-03 -1.3304588241e-04  2.6537253438e-04
 7.6507199168e-03 -7.7361889981e-05  2.0096180630e-04
 7.4240591590e-03 -8.2503129792e-05  3.1012656408e-04
 7.5170267344e-03 -7.0890919727e-05 -3.1229680065e-04
 7.7075135410e-03 -5.4277447511e-05 -2.2299433115e-04
 7.6689849650e-03 -3.8493900130e-05 -9.9431126236e-05
 7.8309518952e-03 -5.8779285697e-05 -1.1663386320e-04
 7.8858319786e-03 -6.4069409666e-05 -5.6285440513e-05
 7.8853281842e-03 -7.1486577433e-05 -1.2971074398e-05
 7.8578189391e-03 -4.5607366013e-05  8.4795171319e-07
 7.8534748463e-03 -4.6081350808e-05  2.5422723705e-05
 7.8115705504e-03 -3.5507144545e-05  4.5601860441e-05
 7.8665245558e-03 -6.9265675155e-05  7.0576470765e-05
 7.8223168751e-03 -7.6336470528e-05  1.0468510447e-04
 7.7739404927e-03 -5.2125013798e-05  7.9529712195e-05
 7.7061470424e-03 -3.7340880360e-05  8.1868213692e-05
 7.6549171056e-03 -6.7748415663e-05  2.0102308982e-04
 7.4711352383e-03 -8.0123914895e-05  2.8928202934e-04
 7.5894959005e-03 -4.5411678162e-05 -2.8652763616e-04
 7.7359185866e-03 -2.8643429901e-05 -2.3142854522e-04
 7.7835866318e-03 -4.2078691847e-05 -1.6224701539e-04
 7.8037568223e-03 -1.5143614218e-05 -1.0433143006e-04
 7.8338524761e-03 -1.4867607287e-05 -9.4137807529e-05
 7.9013434232e-03 -3.2877508861e-05  2.6429636286e-05
 7.8935257050e-03 -2.2673709316e-05  2.2959709857e-05
 7.8746588782e-03 -1.7763377754e-05  3.2110773010e-05
 7.8307815898e-03 -3.7720100816e-05  9.6790040014e-05
 7.8362164878e-03 -2.0309239692e-05  1.0542733425e-04
 7.7706154779e-03 -2.2506078476e-05  7.8234439695e-05
 7.7342382005e-03 -1.7638483120e-05  8.2062027189e-05
 7.6423077920e-03 -3.0455810259e-05  1.7721661903e-04
 7.5121821077e-03 -6.8521886930e-06 -3.0863884210e-04
 7.4534710632e-03 -4.7875019107e-06 -2.6234807619e-04
 7.6578183536e-03  8.7434146765e-06 -1.5864958637e-04
 7.7112023052e-03 -8.3176295496e-06 -1.3567595843e-04
 7.7864028806e-03 -2.3779130658e-06 -1.3329100957e-04
 7.8704567633e-03  9.4285214814e-06  5.0041162543e-07
 7.8047243025e-03  4.1081590360e-06  4.7412883839e-05
 7.6748877197e-03  4.6467496346e-06  2.1142647579e-04
 7.6646218286e-03  5.7551134472e-06  2.0967668020e-04
 7.6904450785e-03 -4.3938852317e-07  2.3474450136e-04
 7.5176762953e-03 -3.0345274736e-06  1.7587789469e-04
 7.4771706578e-03  1.1722441457e-05  2.6359052437e-04
 7.4486869767e-03 -2.3995128043e-06  3.2904865820e-04
 7.4900563149e-03 -1.9775731459e-05  3.8879106478e-04
 7.4891903898e-03  1.7873336247e-05 -2.4134164143e-04
 7.5565662623e-03  2.8483387852e-05 -1.5322210544e-04
 7.6157298826e-03  2.7793034061e-05 -1.8527762507e-04
 7.8318524346e-03  2.2851660038e-05 -1.6026399946e-05
 7.8922558049e-03  3.3006060049e-05  4.6106837089e-05
 7.8334436628e-03  1.9765191438e-05  2.8378721965e-05
 7.7692075085e-03  4.1337847197e-05  1.5004679689e-04
 7.6456401336e-03  2.1159120715e-05  1.2827075267e-04
 7.5483679508e-03  3.1914562137e-05  2.1433747912e-04
 7.4975977735e-03  2.8726136480e-05  2.6447189310e-04
 7.4898280116e-03  6.2060332678e-05 -3.7001519508e-04
 7.6881540044e-03  6.1397159476e-05 -2.3571225116e-04
 7.6668669855e-03  3.5751623412e-05 -1.3997341623e-04
 7.8213923866e-03  7.5313389815e-05 -1.4039023733e-04
 7.7548868888e-03  4.2735185913e-05 -1.0071790282e-04
 7.8142979113e-03  4.2940079304e-05 -3.3914532078e-05
 7.8806831379e-03  6.5231962262e-05  7.3505483171e-05
 7.8380944281e-03  6.1150405520e-05  1.0582510350e-04
 7.8305358130e-03  6.5217061846e-05  1.2184514540e-04
 7.7741713978e-03  7.3735781400e-05  1.4242229833e-04
 7.6359589936e-03  6.6574369151e-05  2.5587222913e-04
 7.5644731262e-03  9.9862717969e-05  3.3290867516e-04
 7.5133507093e-03  3.4748141115e-05  1.9070669321e-04
 7.5272999007e-03  7.8499899028e-05  3.5403003905e-04
 7.4663381877e-03  6.9846187344e-05  3.1459185727e-04
 7.4260489581e-03  4.9913246081e-05  2.6584947005e-04
 7.6210949826e-03  9.6340051026e-05 -2.4722478157e-04
 7.6153518615e-03  8.9859057801e-05 -2.0615974437e-04
 7.6069035415e-03  1.1081652936e-04 -2.6828355815e-04
 7.7135561745e-03  1.1226354098e-04 -2.0687630065e-04
 7.6987807881e-03  9.5835310672e-05 -1.8186851395e-04
 7.7866851466e-03  7.9520533556e-05 -8.4142731205e-05
 7.8724147289e-03  1.1978528987e-04  1.9326018146e-05
 7.7260739307e-03  1.1914504857e-04  2.1432450072e-04
 7.6761505141e-03  9.6117239560e-05  2.2912330331e-04
 7.6922440392e-03  1.0616878556e-04  1.9685788433e-04
 7.6325740891e-03  1.0508396858e-04  2.7756487090e-04
 7.5299182139e-03  7.9061218066e-05  1.6936223191e-04
 7.5732431972e-03  6.5773286118e-05  1.5085449085e-04
 7.4637782130e-03  1.0907851844e-04 -2.1377113054e-04
 7.5173811517e-03  1.2895467498e-04 -2.1412798579e-04
 7.7962458485e-03  1.0635556424e-04 -7.8729938985e-05
 7.8190624130e-03  1.3765704754e-04 -2.5000799369e-05
 7.7836670388e-03  1.4493664289e-04  7.4528693197e-05
 7.7321938172e-03  1.4075262237e-04  1.4850874136e-04
 7.6407191591e-03  1.5613645398e-04  2.3876294118e-04
 7.6183793936e-03  1.3315935225e-04  1.7758969231e-04
 7.4398743890e-03  1.7894789276e-04 -3.5232322935e-04
 7.6493959256e-03  1.7459505795e-04 -2.3269469697e-04
 7.7268666911e-03  1.5090152543e-04 -1.1347462269e-04
 7.7865747594e-03  1.7223453279e-04 -5.9951428976e-05
 7.7596020891e-03  1.1807990025e-04 -4.5242242968e-05
 7.7701491464e-03  1.8142373753e-04  1.3605056590e-06
 7.7950826177e-03  1.5428031211e-04  2.7439526857e-05
 7.6260549114e-03  1.7699565086e-04  1.8265154619e-04
 7.6038520294e-03  1.5336358404e-04  2.1280252105e-04
 7.4649654322e-03  2.3386668039e-04 -3.0083766528e-04
 7.4967419495e-03  1.6492037271e-04 -2.0670727621e-04
 7.5743639945e-03  2.1221487463e-04 -2.1492374312e-04
 7.4969406645e-03  1.3624262545e-04 -1.2274914718e-04
 7.6190625096e-03  1.8029657900e-04 -1.6348166083e-04
 7.6244840003e-03  2.0441419920e-04 -1.6259712758e-04
 7.7212450152e-03  2.0488472036e-04 -1.0263237301e-04
 7.6662247150e-03  2.0706061205e-04 -1.0983944515e-04
 7.6728484622e-03  1.7219159787e-04 -8.5240842962e-05
 7.7635703068e-03  1.9955094740e-04  1.4553161399e-05
 7.6633845940e-03  1.4192458443e-04  5.3712246444e-05
 7.6427329656e-03  1.0707737052e-04  5.9028104499e-05
 7.5861545237e-03  1.1481998430e-04  9.7740807828e-05
 7.5706738264e-03  2.0725811748e-04 -7.2113168605e-05
 7.5782542971e-03  2.3722957612e-04  1.6108773628e-04
 7.4418528758e-03  3.0806903482e-04 -2.1968309581e-04
 7.5036619240e-03  2.4785841229e-04 -1.3047248483e-04
 7.5211887390e-03  3.0213542647e-04  1.1527943398e-04
 7.4546847364e-03  2.9731968940e-04  1.9316970802e-04
 7.4234323465e-03  2.5841227598e-04  2.1188258591e-04
 7.4099864685e-03  2.7416014011e-04 -1.4948447653e-04
 7.3914822266e-03  2.6167370156e-04 -1.2488555447e-04
 7.4952754982e-03  3.5076276342e-04 -8.8116424723e-05
 7.3809106015e-03  2.5041055247e-04  6.1571131610e-05
 7.4917737758e-03 -4.1388772614e-04 -1.2081428722e-05
 7.5066085006e-03 -4.8021606379e-04  5.2738917614e-05
 7.5160708361e-03 -4.6508023592e-04 -2.2343920275e-04
 7.5115094452e-03 -4.5975383331e-04 -2.3190860745e-04
 7.4673142151e-03 -3.9711044346e-04 -1.7343532049e-04
 7.5529646596e-03 -4.8623082984e-04 -9.2756005624e-05
 7.5660188163e-03 -3.8426187781e-04 -5.9225486638e-05
 7.5758785302e-03 -4.5011029999e-04  1.9954833063e-05
 7.5983863233e-03 -4.0543985422e-04 -1.5012589907e-05
 7.5740114531e-03 -3.5259890388e-04  3.5120594100e-06
 7.5722044669e-03 -4.6589168731e-04  1.3998718865e-04
 7.5159918577e-03 -4.9167826651e-04  1.5750330692e-04
 7.5179520375e-03 -4.1703051357e-04 -2.9462537034e-04
 7.5818218656e-03 -3.7951428404e-04 -2.0657626542e-04
 7.5237833853e-03 -3.7869082919e-04 -1.8937648040e-04
 7.6097600314e-03 -3.9632933498e-04 -1.4096154584e-04
 7.6774042941e-03 -4.0825482037e-04 -1.1131893657e-04
 7.6553835316e-03 -3.5373038102e-04 -8.2358271682e-05
 7.6617700829e-03 -3.5358854792e-04  5.5450228349e-06
 7.6378055614e-03 -3.3960228905e-04  6.4803616446e-06
 7.6924762350e-03 -3.6787614137e-04  2.5544094272e-05
 7.6706902991e-03 -4.0574789808e-04  8.1540735882e-05
 7.6258077987e-03 -3.7707861663e-04  1.4890982757e-04
 7.6131799161e-03 -3.2812332483e-04  1.3506726321e-04
 7.6001958266e-03 -4.2879273928e-04  1.8550345870e-04
 7.5290362821e-03 -3.7379217348e-04  1.9639835976e-04
 7.5937325604e-03 -3.2057776020e-04 -2.0806359551e-04
 7.6161033353e-03 -3.5829079253e-04 -1.9854636496e-04
 7.7063841079e-03 -3.4026273358e-04 -2.1448311524e-04
 7.6728774320e-03 -2.9066759567e-04 -8.9051492219e-05
 7.6546249324e-03 -2.8934681057e-04 -5.9171395812e-05
 7.7424604610e-03 -3.5215442846e-04 -3.6722428659e-05
 7.7032457507e-03 -3.3545119793e-04 -4.2930373082e-05
 7.7635822799e-03 -3.0683328642e-04 -2.3918573712e-05
 7.6753291294e-03 -3.0772245859e-04  1.1310172284e-05
 7.7224018420e-03 -3.6330137105e-04  1.0384970881e-04
 7.6699234840e-03 -3.6055800738e-04  1.9405593808e-04
 7.6002525284e-03 -3.6320797030e-04  2.2189673731e-04
 7.5986568890e-03 -3.4099847200e-04  2.5355650397e-04
 7.6334217966e-03 -3.2372255640e-04  2.2420705482e-04
 7.5009438527e-03 -2.5160931516e-04 -3.4011615733e-04
 7.7618374713e-03 -2.6943669783e-04 -1.7616281144e-04
 7.7817272129e-03 -2.4621874106e-04 -9.6406113145e-05
 7.7556708082e-03 -2.3752536393e-04 -8.1258767139e-05
 7.8027473690e-03 -2.6120292237e-04 -4.9359255406e-05
 7.7389332985e-03 -2.5403858062e-04 -2.7408854061e-05
 7.7618816909e-03 -2.8369325359e-04  9.5250573933e-05
 7.7880118042e-03 -3.0696756231e-04  9.5628717268e-05
 7.7628519738e-03 -2.9399452722e-04  1.3133835217e-04
 7.7741576905e-03 -2.4374547030e-04  1.1958538092e-04
 7.7361837400e-03 -3.1284409705e-04  2.0550077058e-04
 7.7088573668e-03 -2.4903999660e-04  1.9397856811e-04
 7.6351498339e-03 -2.8224269092e-04  3.2525655341e-04
 7.5062623800e-03 -3.0490929381e-04  4.0754022699e-04
 7.5248933862e-03 -2.5583140330e-04  3.5106337048e-04
 7.4740612342e-03 -2.1331748742e-04 -3.9051626120e-04
 7.6681972656e-03 -2.0477762118e-04 -2.4717236575e-04
 7.7286323343e-03 -2.2859051666e-04 -2.4094082338e-04
 7.7409659189e-03 -2.2195511590e-04 -2.0112165264e-04
 7.8188489279e-03 -2.7228160421e-04 -1.2398412686e-04
 7.8105940698e-03 -2.2497058147e-04 -1.0293315783e-04
 7.7892453760e-03 -2.1574282367e-04 -2.0270525242e-05
 7.8216006415e-03 -1.8275503913e-04 -6.6611951386e-06
 7.8028423588e-03 -2.1328760546e-04  2.2177055874e-05
 7.8515404527e-03 -2.0824391318e-04  3.6311208474e-05
 7.7856947330e-03 -2.6615115642e-04  1.9716227568e-04
 7.7583722236e-03 -2.3677343138e-04  1.8050580104e-04
 7.7012784521e-03 -2.0851916600e-04  1.6698292969e-04
 7.7528672022e-03 -2.4591222037e-04  2.1880712947e-04
 7.6428092611e-03 -2.6706857593e-04  3.1795709814e-04
 7.6193654013e-03 -2.5714681024e-04  3.4064971890e-04
 7.6088577727e-03 -2.2300664955e-04  3.5574738855e-04
 7.6010828393e-03 -2.3022615729e-04  3.4184680741e-04
 7.5964047812e-03 -2.0825019925e-04 -3.6475757797e-04
 7.8308970983e-03 -1.8030525603e-04 -2.3229885509e-04
 7.7909685063e-03 -2.1624397716e-04 -2.5051054120e-04
 7.7897561227e-03 -1.8049906738e-04 -2.3761277563e-04
 7.7913729597e-03 -1.8011167250e-04 -2.2282033190e-04
 7.8042362504e-03 -1.7006407536e-04 -2.1469879641e-04
 7.8351310741e-03 -2.0980070276e-04 -1.7333491555e-04
 7.8243354630e-03 -1.4267075568e-04 -1.4187585712e-04
 7.8922632460e-03 -1.9641300417e-04 -8.3076120799e-05
 7.8721491192e-03 -1.9358611249e-04 -7.5712652216e-05
 7.8702960546e-03 -1.9005678940e-04 -8.0434149483e-05
 7.8703933590e-03 -1.5458394273e-04 -2.8624704833e-05
 7.8760596265e-03 -1.5171471372e-04  1.8744582268e-06
 7.8410226596e-03 -1.7950219244e-04  2.4449481460e-05
 7.8791721995e-03 -2.0482083919e-04  1.1282905859e-04
 7.8870650920e-03 -2.0768832420e-04  7.5456784124e-05
 7.8782475851e-03 -1.9293937789e-04  1.3511137055e-04
 7.7991606191e-03 -1.6799648162e-04  2.0622611144e-04
 7.5132902282e-03 -1.8948401001e-04  4.3950266140e-04
 7.4978076047e-03 -1.2637997776e-04 -4.7339109737e-04
 7.5705500051e-03 -1.3563577546e-04 -4.0789197721e-04
 7.6332155804e-03 -1.6385609190e-04 -3.8023624436e-04
 7.7166706918e-03 -1.3435993024e-04 -3.5793891193e-04
 7.7063779787e-03 -1.6384804125e-04 -3.4183790579e-04
 7.6858862428e-03 -1.0912079511e-04 -3.0105716345e-04
 7.7162976730e-03 -1.3266484605e-04 -2.7630193878e-04
 7.7083298420e-03 -1.3309382664e-04 -2.3761677704e-04
 7.7563597442e-03 -1.1839003414e-04 -2.0851948501e-04
 7.8396696299e-03 -1.2342470759e-04 -1.5729232153e-04
 7.8744667906e-03 -1.3185724183e-04 -1.5371113141e-04
 7.8527050555e-03 -1.3485589460e-04 -1.5271874469e-04
 7.9194998583e-03 -1.1213929476e-04 -7.4245458052e-05
 7.9427500887e-03 -1.3154175305e-04 -3.5953044771e-05
 7.8550125032e-03 -1.4411503518e-04  1.2273244766e-04
 7.7515313472e-03 -1.6298969902e-04  2.7222920763e-04
 7.7258053847e-03 -1.1665778057e-04  2.9635654222e-04
 7.7176690041e-03 -1.0410724263e-04  2.3458876140e-04
 7.6911431730e-03 -1.5606866151e-04  3.2338098227e-04
 7.6459548505e-03 -1.4991064867e-04  4.1245142305e-04
 7.5700114002e-03 -1.3294550092e-04  4.3027586438e-04
 7.7749639229e-03 -7.4641183429e-05 -3.0838506932e-04
 7.7372205190e-03 -6.7699137409e-05 -2.8369185886e-04
 7.8168902616e-03 -7.0326556845e-05 -1.9989063439e-04
 7.8979356032e-03 -8.2234263255e-05 -1.9060136980e-04
 7.9226302756e-03 -9.8591656032e-05 -1.6450701676e-04
 7.9588650676e-03 -9.9578868530e-05 -8.6027877279e-05
 7.9493086894e-03 -1.0169260500e-04  6.2162928611e-05
 7.9114969860e-03 -1.0748483426e-04  1.3563535056e-04
 7.8938748924e-03 -8.0033621155e-05  1.2243255674e-04
 7.8525846156e-03 -7.8456636763e-05  2.1197933022e-04
 7.6834349829e-03 -8.8431037346e-05  2.9594137373e-04
 7.6745874543e-03 -2.7844898756e-05 -4.2003272291e-04
 7.6056402683e-03 -4.0784074243e-05 -3.4442527607e-04
 7.8073829825e-03 -6.6463626572e-05 -2.6599400627e-04
 7.8375918679e-03 -5.9889025456e-05 -2.2030244247e-04
 7.8921492502e-03 -5.8838547887e-05 -2.0655275854e-04
 7.9544995921e-03 -2.6749514246e-05 -1.3279697044e-04
 7.9120959805e-03 -3.8229633079e-05 -8.7437383043e-05
 7.9050432287e-03 -3.3466864719e-05 -9.2031866353e-05
 7.9825425843e-03 -5.5877712794e-05 -2.5368689314e-05